<?xml version="1.0" encoding="UTF-8"?>

<!-- generated on 2022-02-16 12:58:51 by Eclipse SUMO sumo Version 1.11.0
<configuration xmlns:xsi="http://www.w3.org/2001/XMLSchema-instance" xsi:noNamespaceSchemaLocation="http://sumo.dlr.de/xsd/sumoConfiguration.xsd">

    <input>
        <net-file value="C:\Users\roope\Sumo\tools\2022-02-16-12-58-17\osm.net.xml"/>
        <route-files value="C:\Users\roope\Sumo\tools\2022-02-16-12-58-17\trips.trips.xml"/>
        <additional-files value="C:\Users\roope\Sumo\tools\2022-02-16-12-58-17\osm_stops.add.xml"/>
    </input>

    <output>
        <vehroute-output value="C:\Users\roope\Sumo\tools\2022-02-16-12-58-17\vehroutes.xml"/>
        <stop-output value="C:\Users\roope\Sumo\tools\2022-02-16-12-58-17\stopinfos.xml"/>
    </output>

    <time>
        <begin value="0"/>
    </time>

    <processing>
        <ignore-route-errors value="true"/>
    </processing>

    <routing>
        <device.rerouting.adaptation-interval value="0"/>
    </routing>

    <report>
        <aggregate-warnings value="5"/>
        <error-log value="C:\Users\roope\Sumo\tools\2022-02-16-12-58-17\trips.trips.xml.errorlog"/>
        <no-step-log value="true"/>
    </report>

</configuration>
-->

<routes xmlns:xsi="http://www.w3.org/2001/XMLSchema-instance" xsi:noNamespaceSchemaLocation="http://sumo.dlr.de/xsd/routes_file.xsd">
    <vehicle id="3_bus_97V:0" type="pt_bus" depart="17.00" departLane="0" arrival="52.00">
        <route edges="-4258462#1 -4258462#0 17067393 131238561#0 131238561#1"/>
    </vehicle>

    <vehicle id="0_bus_93K:0" type="pt_bus" depart="3.00" departLane="1" arrival="105.00">
        <route edges="231265364#0 208320466 131238562#0 131238562#1 56018707 4258462#0 4258462#1"/>
        <stop busStop="7391919239" duration="30.00"/>
    </vehicle>

    <vehicle id="1_bus_93:0" type="pt_bus" depart="15.00" departLane="1" arrival="195.00">
        <route edges="231265364#0 208320466 131238562#0 131238562#1 56018707 4258462#0 4258462#1"/>
        <stop busStop="7391919239" duration="30.00"/>
    </vehicle>

    <vehicle id="2_bus_97:0" type="pt_bus" depart="21.00" departLane="1" arrival="198.00">
        <route edges="231265364#0 208320466 131238562#0 131238562#1 56018707 4258462#0 4258462#1"/>
        <stop busStop="7391919239" duration="30.00"/>
    </vehicle>

    <vehicle id="8_bus_97:1" type="pt_bus" depart="119.00" departLane="0" arrival="230.00">
        <route edges="-4258462#1 -4258462#0 17067393 131238561#0 131238561#1 131238560#2 251683192 208400003"/>
        <stop busStop="7391919240" duration="30.00"/>
    </vehicle>

    <vehicle id="5_bus_97N:0" type="pt_bus" depart="55.00" departLane="1" arrival="257.00">
        <route edges="231265364#0 208320466 131238562#0 131238562#1 56018707 4258462#0 4258462#1"/>
        <stop busStop="7391919239" duration="30.00"/>
    </vehicle>

    <vehicle id="9_bus_97N:1" type="pt_bus" depart="131.00" departLane="0" arrival="269.00">
        <route edges="-4258462#1 -4258462#0 17067393 131238561#0 131238561#1 131238560#2 251683192 208400003"/>
        <stop busStop="7391919240" duration="30.00"/>
    </vehicle>

    <vehicle id="13_bus_840:0" type="pt_bus" depart="201.00" departLane="0" arrival="297.00">
        <route edges="131238560#2"/>
        <stop busStop="7391919240" duration="30.00"/>
    </vehicle>

    <vehicle id="16_bus_870:0" type="pt_bus" depart="303.00" departLane="0" arrival="360.00">
        <route edges="131238560#2"/>
        <stop busStop="7391919240" duration="30.00"/>
    </vehicle>

    <vehicle id="17_bus_870:1" type="pt_bus" depart="326.00" departLane="0" arrival="372.00">
        <route edges="131238562#1"/>
        <stop busStop="7391919239" duration="30.00"/>
    </vehicle>

    <vehicle id="21_bus_93:1" type="pt_bus" depart="406.00" departLane="0" arrival="520.00">
        <route edges="-4258462#1 -4258462#0 17067393 131238561#0 131238561#1 131238560#2 251683192 208400003"/>
        <stop busStop="7391919240" duration="30.00"/>
    </vehicle>

    <vehicle id="7_bus_90:0" type="pt_bus" depart="93.00" departLane="0" arrival="541.00">
        <route edges="23278350 23278364#1 45961435 986676789 195005703 511790420#2 511790420#3 511790420#4 4323896 986676793 45961438#0 107612263#0 107612263#1 107612263#2 107612263#3 107612263#4 107612263#6 53179703 130178871#0 130178871#1 130178880 34822265#0 34822265#1 107756096#0 107756096#1 107756096#2 464123732 -108958680#1 -108958680#0 -108958681 -108958676#2 -108958676#0 -108958677#0 -108958678#0 -55896960 -231840616#1 -231840616#0 4323911 231840618#1 108255609#1 108255609#2 108255618#1 108255593#1 108255614#1 54516960#0 54516960#1 54516960#2 129805857#1 107899566#1 107899567#1 54233568 54233566 107899610 40166059#0 40166059#1 40166060#0 40166060#1 54040588 35066859#0 35066859#1 34824514 54040587 107899576#1 284131342#3 107899636#1 38827808 284131341 53198549#0 53198549#1 195008346 39449178 22962059 44508915 49184939#0 49184937#1 44508919 54905484#0 54905484#1 299346549#0 299346549#1 299346549#2 54905487#0"/>
        <stop busStop="445085498" duration="30.00"/>
        <stop busStop="-445834185" duration="30.00"/>
        <stop busStop="445834180" duration="30.00"/>
    </vehicle>

    <vehicle id="19_subway_M1:0" type="pt_subway" depart="383.00" departLane="0" arrival="575.00">
        <route edges="6175919 6175933#1 6175933#2 34843849#1 34843849#2"/>
        <stop busStop="5405365236" duration="30.00"/>
        <stop busStop="5178040578" duration="30.00"/>
    </vehicle>

    <vehicle id="20_subway_M1:1" type="pt_subway" depart="389.00" departLane="0" arrival="580.00">
        <route edges="35739026 35739029#1 35739029#2 -35739024 -6175933#1 -35739039 35739023#2"/>
        <stop busStop="5178040579" duration="30.00"/>
        <stop busStop="5405365237" duration="30.00"/>
    </vehicle>

    <vehicle id="25_bus_93K:1" type="pt_bus" depart="485.00" departLane="0" arrival="639.00">
        <route edges="-4258462#1 -4258462#0 17067393 131238561#0 131238561#1 131238560#2 251683192 208400003"/>
        <stop busStop="7391919240" duration="30.00"/>
    </vehicle>

    <vehicle id="23_bus_560:0" type="pt_bus" depart="441.00" departLane="0" arrival="1523.00">
        <route edges="285626282 48922632 4264945 44508332 284131369#0 -34824701#1 -34824701#0 34844201#0 34844201#1 95889676#0 95889676#2 95889679 196295109#0 196295109#1 40326558#0 40326558#1 196295108 346556845#1 284131368 40166558#0 40166558#1 38360085#2 38360085#3 48980178#0 48980178#1 241899212 241899218 241899213 48980170#0 48980170#1 -276197907 -110778862 110778854#0 110778854#2 -276138730 123749557#0 123749557#1 -40164323 4864798#0 122743351#1 -284131420 -40163332 466143872#0 466143872#1 637441281 -637441273 -196207114#1 -196207114#0 -304396594#2 -304396594#1 -304396594#0 42700982#0 42700982#1 42700982#3 23278350 23278364#1 45961435 986676789 195005703 511790420#2 511790420#3 511790420#4 4323896 986676793 45961438#0 107612263#0 107612263#1 107612263#2 107612263#3 107612263#4 107612263#6 53179703 130178871#0 130178871#1 130178875#0 130178875#1 -53179702 -63588543 63588500 107756079 -465653482 -42525027#0 -65075525#2 -65075525#1 -65075525#0 65075526#0 65075526#1 -284131372#1 -284131372#0 -35360594 -284131373#2 -284131374#1 -284131374#0 -201252985 -4323863 -182886420 -182886418#1 -182886418#0 -129463692#0 -182886295#1 -182886295#0 -128672146#8 -128672146#6 -128672146#5 -128672146#4 -128672146#3 -128672146#2 -128672146#1 -128672146#0 -42524428#2 -42524428#1 -42524428#0 -419276338#0 -128139012#2 -128139012#1 -128139012#0 -128139013 -128139011#0 128139020 128139004 -128139030#1 -128139030#0 -128139009 -65069391#1 -65069391#0 -6179673 17419599#0 167409834"/>
        <stop busStop="6329147761" duration="30.00"/>
        <stop busStop="6329147760" duration="30.00"/>
        <stop busStop="-6329147759" duration="30.00"/>
        <stop busStop="-6329147758" duration="30.00"/>
        <stop busStop="6329147757" duration="30.00"/>
        <stop busStop="6329147756" duration="30.00"/>
        <stop busStop="-6329147755" duration="30.00"/>
        <stop busStop="-6329147754" duration="30.00"/>
        <stop busStop="-6329147753" duration="30.00"/>
        <stop busStop="-6329147752" duration="30.00"/>
        <stop busStop="-6329147751" duration="30.00"/>
        <stop busStop="-6329147750" duration="30.00"/>
    </vehicle>

    <vehicle id="24_bus_560:1" type="pt_bus" depart="483.00" departLane="0" arrival="1612.00">
        <route edges="38507311#0 38507311#2 6175910#0 6175910#1 17419597#0 35360597#1 6179673 65069391#0 65069391#1 128139009 128139030#0 128139030#1 128139023#0 128139023#1 128139011#0 128139011#1 128139012#0 128139012#1 128139012#2 419276338#0 419276342 42524428#1 42524428#2 128672146#0 128672146#1 128672146#2 128672146#3 128672146#4 128672146#5 128672146#6 128672146#8 201252986 182886295#1 129463692#0 129463692#1 182886418#1 182886420 4323863 201252985 284131374#0 284131374#1 284131373#2 35360594 284131372#0 284131372#1 65075527#0 65075527#1 65075525#0 65075525#1 65075525#2 42525027#0 42525027#1 63588540 107756084 63588543 53179702 107756078#0 107756078#1 130178876 130178877#0 130178877#1 -107756082 -175155171 -107612263#4 -107612263#3 -107612263#2 -107612263#1 -107612263#0 -45961438#0 986676796 45961437 511790420#0 23278363 986676791 195005702 45961436 -23278364#0 -42700982#3 -42700982#1 -42700982#0 38045366 304396594#1 304396594#2 196207114#0 196207114#1 637441273 553546863 637441268#0 637441268#1 40163332 284131420 313666957 40164324#1 40164323 123749553#0 123749553#1 123749551 40329943#0 40329943#2 110778862 276197907 48980169#0 48980169#1 241899217 241899214 48980173#0 48980173#1 -38360085#3 -38360085#2 -38360085#1 -40166558#0 -284131368 -346556845#1 -346556845#0 196295110#0 196295110#1 196295111#0 196295111#1 -95889679 95889674 95891689#0 95891689#2 95891682 -34844201#1 -34844201#0 892377261 34824701#1 44508333#1 44508333#2 34100336 80181844 80181847 48922634 -285626282"/>
        <stop busStop="6329149212" duration="30.00"/>
        <stop busStop="6329149210" duration="30.00"/>
        <stop busStop="6329149209" duration="30.00"/>
        <stop busStop="6329149208" duration="30.00"/>
        <stop busStop="6329149207" duration="30.00"/>
        <stop busStop="6329149206" duration="30.00"/>
        <stop busStop="445090546" duration="30.00"/>
        <stop busStop="6329149204" duration="30.00"/>
        <stop busStop="-251919863" duration="30.00"/>
        <stop busStop="6329149203" duration="30.00"/>
        <stop busStop="-6329149202" duration="30.00"/>
        <stop busStop="-471185941" duration="30.00"/>
        <stop busStop="6329149201" duration="30.00"/>
    </vehicle>

</routes>
